   4   4   0   0
  0.1532745E+02  0.3943150E-09  0.3943150E-09  0.3943150E-09  0.5000000E-15
  1.000000000000000E-004
  CAR 
 unknown system                          
     18.06364855     -0.63919711  301     10.79535981      1.00000000
     -0.639  0.0000E+00  0.0000E+00
     -0.577  0.0000E+00  0.0000E+00
     -0.515  0.0000E+00  0.0000E+00
     -0.452  0.0000E+00  0.0000E+00
     -0.390  0.0000E+00  0.0000E+00
     -0.327  0.0000E+00  0.0000E+00
     -0.265  0.0000E+00  0.0000E+00
     -0.203  0.0000E+00  0.0000E+00
     -0.140  0.0000E+00  0.0000E+00
     -0.078  0.0000E+00  0.0000E+00
     -0.016  0.0000E+00  0.0000E+00
      0.047  0.0000E+00  0.0000E+00
      0.109  0.0000E+00  0.0000E+00
      0.171  0.0000E+00  0.0000E+00
      0.234  0.3116E-14  0.1943E-15
      0.296  0.9884E-13  0.6356E-14
      0.358  0.2609E-11  0.1690E-12
      0.421  0.5685E-10  0.3713E-11
      0.483  0.1022E-08  0.6743E-10
      0.545  0.1516E-07  0.1013E-08
      0.608  0.1856E-06  0.1258E-07
      0.670  0.1875E-05  0.1295E-06
      0.732  0.1564E-04  0.1104E-05
      0.795  0.1077E-03  0.7817E-05
      0.857  0.6120E-03  0.4597E-04
      0.919  0.2872E-02  0.2250E-03
      0.982  0.1113E-01  0.9188E-03
      1.044  0.3561E-01  0.3139E-02
      1.106  0.9409E-01  0.9005E-02
      1.169  0.2053E+00  0.2181E-01
      1.231  0.3701E+00  0.4488E-01
      1.293  0.5509E+00  0.7922E-01
      1.356  0.6774E+00  0.1215E+00
      1.418  0.6879E+00  0.1643E+00
      1.480  0.5770E+00  0.2003E+00
      1.543  0.3998E+00  0.2252E+00
      1.605  0.2288E+00  0.2395E+00
      1.667  0.1081E+00  0.2462E+00
      1.730  0.4220E-01  0.2489E+00
      1.792  0.1360E-01  0.2497E+00
      1.855  0.3620E-02  0.2499E+00
      1.917  0.7956E-03  0.2500E+00
      1.979  0.1445E-03  0.2500E+00
      2.042  0.2270E-04  0.2500E+00
      2.104  0.1294E-04  0.2500E+00
      2.166  0.8151E-04  0.2500E+00
      2.229  0.5306E-03  0.2500E+00
      2.291  0.2861E-02  0.2502E+00
      2.353  0.1274E-01  0.2510E+00
      2.416  0.4683E-01  0.2539E+00
      2.478  0.1422E+00  0.2628E+00
      2.540  0.3565E+00  0.2850E+00
      2.603  0.7381E+00  0.3310E+00
      2.665  0.1262E+01  0.4097E+00
      2.727  0.1783E+01  0.5209E+00
      2.790  0.2080E+01  0.6506E+00
      2.852  0.2004E+01  0.7755E+00
      2.914  0.1595E+01  0.8750E+00
      2.977  0.1049E+01  0.9403E+00
      3.039  0.5696E+00  0.9758E+00
      3.101  0.2567E+00  0.9918E+00
      3.164  0.1007E+00  0.9981E+00
      3.226  0.5178E-01  0.1001E+01
      3.288  0.7851E-01  0.1006E+01
      3.351  0.1895E+00  0.1018E+01
      3.413  0.4241E+00  0.1044E+01
      3.475  0.8206E+00  0.1096E+01
      3.538  0.1370E+01  0.1181E+01
      3.600  0.1974E+01  0.1304E+01
      3.662  0.2451E+01  0.1457E+01
      3.725  0.2624E+01  0.1620E+01
      3.787  0.2457E+01  0.1774E+01
      3.849  0.2124E+01  0.1906E+01
      3.912  0.1925E+01  0.2026E+01
      3.974  0.2095E+01  0.2157E+01
      4.037  0.2657E+01  0.2322E+01
      4.099  0.3435E+01  0.2536E+01
      4.161  0.4183E+01  0.2797E+01
      4.224  0.4691E+01  0.3090E+01
      4.286  0.4817E+01  0.3390E+01
      4.348  0.4505E+01  0.3671E+01
      4.411  0.3848E+01  0.3911E+01
      4.473  0.3114E+01  0.4105E+01
      4.535  0.2662E+01  0.4271E+01
      4.598  0.2751E+01  0.4442E+01
      4.660  0.3413E+01  0.4655E+01
      4.722  0.4471E+01  0.4934E+01
      4.785  0.5663E+01  0.5287E+01
      4.847  0.6769E+01  0.5709E+01
      4.909  0.7676E+01  0.6187E+01
      4.972  0.8325E+01  0.6706E+01
      5.034  0.8614E+01  0.7244E+01
      5.096  0.8382E+01  0.7766E+01
      5.159  0.7564E+01  0.8238E+01
      5.221  0.6327E+01  0.8632E+01
      5.283  0.4996E+01  0.8944E+01
      5.346  0.3866E+01  0.9185E+01
      5.408  0.3138E+01  0.9380E+01
      5.470  0.2944E+01  0.9564E+01
      5.533  0.3286E+01  0.9769E+01
      5.595  0.3897E+01  0.1001E+02
      5.657  0.4298E+01  0.1028E+02
      5.720  0.4102E+01  0.1054E+02
      5.782  0.3310E+01  0.1074E+02
      5.844  0.2307E+01  0.1089E+02
      5.907  0.1593E+01  0.1098E+02
      5.969  0.1536E+01  0.1108E+02
      6.031  0.2284E+01  0.1122E+02
      6.094  0.3746E+01  0.1146E+02
      6.156  0.5572E+01  0.1180E+02
      6.219  0.7236E+01  0.1225E+02
      6.281  0.8286E+01  0.1277E+02
      6.343  0.8638E+01  0.1331E+02
      6.406  0.8611E+01  0.1385E+02
      6.468  0.8615E+01  0.1438E+02
      6.530  0.8748E+01  0.1493E+02
      6.593  0.8703E+01  0.1547E+02
      6.655  0.8093E+01  0.1598E+02
      6.717  0.6837E+01  0.1640E+02
      6.780  0.5244E+01  0.1673E+02
      6.842  0.3801E+01  0.1697E+02
      6.904  0.2954E+01  0.1715E+02
      6.967  0.3035E+01  0.1734E+02
      7.029  0.4222E+01  0.1760E+02
      7.091  0.6366E+01  0.1800E+02
      7.154  0.8845E+01  0.1855E+02
      7.216  0.1074E+02  0.1922E+02
      7.278  0.1137E+02  0.1993E+02
      7.341  0.1081E+02  0.2060E+02
      7.403  0.9715E+01  0.2121E+02
      7.465  0.8776E+01  0.2176E+02
      7.528  0.8193E+01  0.2227E+02
      7.590  0.7753E+01  0.2275E+02
      7.652  0.7220E+01  0.2320E+02
      7.715  0.6567E+01  0.2361E+02
      7.777  0.5866E+01  0.2398E+02
      7.839  0.5101E+01  0.2429E+02
      7.902  0.4195E+01  0.2455E+02
      7.964  0.3174E+01  0.2475E+02
      8.026  0.2247E+01  0.2489E+02
      8.089  0.1734E+01  0.2500E+02
      8.151  0.1932E+01  0.2512E+02
      8.213  0.2982E+01  0.2531E+02
      8.276  0.4760E+01  0.2560E+02
      8.338  0.6777E+01  0.2603E+02
      8.401  0.8280E+01  0.2654E+02
      8.463  0.8617E+01  0.2708E+02
      8.525  0.7687E+01  0.2756E+02
      8.588  0.6053E+01  0.2794E+02
      8.650  0.4567E+01  0.2822E+02
      8.712  0.3827E+01  0.2846E+02
      8.775  0.3933E+01  0.2871E+02
      8.837  0.4633E+01  0.2899E+02
      8.899  0.5598E+01  0.2934E+02
      8.962  0.6578E+01  0.2975E+02
      9.024  0.7450E+01  0.3022E+02
      9.086  0.8161E+01  0.3073E+02
      9.149  0.8607E+01  0.3126E+02
      9.211  0.8558E+01  0.3180E+02
      9.273  0.7777E+01  0.3228E+02
      9.336  0.6282E+01  0.3267E+02
      9.398  0.4445E+01  0.3295E+02
      9.460  0.2795E+01  0.3312E+02
      9.523  0.1731E+01  0.3323E+02
      9.585  0.1362E+01  0.3332E+02
      9.647  0.1537E+01  0.3341E+02
      9.710  0.1960E+01  0.3354E+02
      9.772  0.2366E+01  0.3368E+02
      9.834  0.2699E+01  0.3385E+02
      9.897  0.3177E+01  0.3405E+02
      9.959  0.4104E+01  0.3430E+02
     10.021  0.5540E+01  0.3465E+02
     10.084  0.7115E+01  0.3509E+02
     10.146  0.8219E+01  0.3561E+02
     10.208  0.8408E+01  0.3613E+02
     10.271  0.7705E+01  0.3661E+02
     10.333  0.6555E+01  0.3702E+02
     10.395  0.5543E+01  0.3736E+02
     10.458  0.5070E+01  0.3768E+02
     10.520  0.5196E+01  0.3800E+02
     10.583  0.5742E+01  0.3836E+02
     10.645  0.6526E+01  0.3877E+02
     10.707  0.7479E+01  0.3924E+02
     10.770  0.8493E+01  0.3977E+02
     10.832  0.9227E+01  0.4034E+02
     10.894  0.9241E+01  0.4092E+02
     10.957  0.8360E+01  0.4144E+02
     11.019  0.6853E+01  0.4187E+02
     11.081  0.5187E+01  0.4219E+02
     11.144  0.3687E+01  0.4242E+02
     11.206  0.2455E+01  0.4257E+02
     11.268  0.1491E+01  0.4266E+02
     11.331  0.7999E+00  0.4271E+02
     11.393  0.3685E+00  0.4274E+02
     11.455  0.1432E+00  0.4275E+02
     11.518  0.4648E-01  0.4275E+02
     11.580  0.1253E-01  0.4275E+02
     11.642  0.2797E-02  0.4275E+02
     11.705  0.5163E-03  0.4275E+02
     11.767  0.7874E-04  0.4275E+02
     11.829  0.9925E-05  0.4275E+02
     11.892  0.1146E-05  0.4275E+02
     11.954  0.1481E-05  0.4275E+02
     12.016  0.1402E-04  0.4275E+02
     12.079  0.1167E-03  0.4275E+02
     12.141  0.8031E-03  0.4275E+02
     12.203  0.4574E-02  0.4275E+02
     12.266  0.2157E-01  0.4275E+02
     12.328  0.8420E-01  0.4276E+02
     12.390  0.2724E+00  0.4277E+02
     12.453  0.7303E+00  0.4282E+02
     12.515  0.1624E+01  0.4292E+02
     12.577  0.2996E+01  0.4311E+02
     12.640  0.4589E+01  0.4339E+02
     12.702  0.5838E+01  0.4376E+02
     12.765  0.6170E+01  0.4414E+02
     12.827  0.5421E+01  0.4448E+02
     12.889  0.3960E+01  0.4473E+02
     12.952  0.2406E+01  0.4488E+02
     13.014  0.1216E+01  0.4495E+02
     13.076  0.5114E+00  0.4498E+02
     13.139  0.1814E+00  0.4500E+02
     13.201  0.6422E-01  0.4500E+02
     13.263  0.5800E-01  0.4500E+02
     13.326  0.1412E+00  0.4501E+02
     13.388  0.3497E+00  0.4503E+02
     13.450  0.7267E+00  0.4508E+02
     13.513  0.1249E+01  0.4516E+02
     13.575  0.1772E+01  0.4527E+02
     13.637  0.2077E+01  0.4540E+02
     13.700  0.2011E+01  0.4552E+02
     13.762  0.1608E+01  0.4562E+02
     13.824  0.1062E+01  0.4569E+02
     13.887  0.5793E+00  0.4573E+02
     13.949  0.2610E+00  0.4574E+02
     14.011  0.9724E-01  0.4575E+02
     14.074  0.3062E-01  0.4575E+02
     14.136  0.1161E-01  0.4575E+02
     14.198  0.1881E-01  0.4575E+02
     14.261  0.6099E-01  0.4576E+02
     14.323  0.1768E+00  0.4577E+02
     14.385  0.4250E+00  0.4579E+02
     14.448  0.8439E+00  0.4585E+02
     14.510  0.1384E+01  0.4593E+02
     14.572  0.1875E+01  0.4605E+02
     14.635  0.2097E+01  0.4618E+02
     14.697  0.1938E+01  0.4630E+02
     14.759  0.1479E+01  0.4639E+02
     14.822  0.9324E+00  0.4645E+02
     14.884  0.4855E+00  0.4648E+02
     14.947  0.2088E+00  0.4649E+02
     15.009  0.7414E-01  0.4650E+02
     15.071  0.2174E-01  0.4650E+02
     15.134  0.5265E-02  0.4650E+02
     15.196  0.1053E-02  0.4650E+02
     15.258  0.1739E-03  0.4650E+02
     15.321  0.2532E-04  0.4650E+02
     15.383  0.1871E-04  0.4650E+02
     15.445  0.1300E-03  0.4650E+02
     15.508  0.8663E-03  0.4650E+02
     15.570  0.4774E-02  0.4650E+02
     15.632  0.2172E-01  0.4650E+02
     15.695  0.8160E-01  0.4651E+02
     15.757  0.2532E+00  0.4652E+02
     15.819  0.6486E+00  0.4656E+02
     15.882  0.1373E+01  0.4665E+02
     15.944  0.2399E+01  0.4680E+02
     16.006  0.3462E+01  0.4701E+02
     16.069  0.4127E+01  0.4727E+02
     16.131  0.4064E+01  0.4752E+02
     16.193  0.3306E+01  0.4773E+02
     16.256  0.2221E+01  0.4787E+02
     16.318  0.1232E+01  0.4795E+02
     16.380  0.5645E+00  0.4798E+02
     16.443  0.2136E+00  0.4799E+02
     16.505  0.6677E-01  0.4800E+02
     16.567  0.1723E-01  0.4800E+02
     16.630  0.3672E-02  0.4800E+02
     16.692  0.6460E-03  0.4800E+02
     16.754  0.9383E-04  0.4800E+02
     16.817  0.1125E-04  0.4800E+02
     16.879  0.1114E-05  0.4800E+02
     16.941  0.9096E-07  0.4800E+02
     17.004  0.6132E-08  0.4800E+02
     17.066  0.3411E-09  0.4800E+02
     17.129  0.1566E-10  0.4800E+02
     17.191  0.5930E-12  0.4800E+02
     17.253  0.1870E-13  0.4800E+02
     17.316  0.0000E+00  0.4800E+02
     17.378  0.0000E+00  0.4800E+02
     17.440  0.0000E+00  0.4800E+02
     17.503  0.0000E+00  0.4800E+02
     17.565  0.0000E+00  0.4800E+02
     17.627  0.0000E+00  0.4800E+02
     17.690  0.0000E+00  0.4800E+02
     17.752  0.0000E+00  0.4800E+02
     17.814  0.0000E+00  0.4800E+02
     17.877  0.0000E+00  0.4800E+02
     17.939  0.0000E+00  0.4800E+02
     18.001  0.0000E+00  0.4800E+02
     18.064  0.0000E+00  0.4800E+02
