    4    4    1    1
  0.1532745E+02  0.3943150E-09  0.3943150E-09  0.3943150E-09  0.5000000E-15
  1.000000000000000E-004
  CAR 
 unknown system                          
     40      4     24
 
  0.1250000E+00  0.1250000E+00  0.1250000E+00  0.1250000E+00
    1        1.360803   1.000000
    2        4.242796   1.000000
    3        4.242796   1.000000
    4        4.242796   1.000000
    5        4.696011   1.000000
    6        4.696011   1.000000
    7        4.696011   1.000000
    8        6.858076   1.000000
    9        7.307860   1.000000
   10        7.307860   1.000000
   11        9.128393   1.000000
   12        9.128393   1.000000
   13        9.288012   1.000000
   14        9.288012   1.000000
   15        9.288012   1.000000
   16       10.162073   0.999996
   17       10.162073   0.999996
   18       10.162073   0.999996
   19       11.092337   0.017867
   20       11.092337   0.017867
   21       11.092337   0.017867
   22       13.626757   0.000000
   23       13.626757   0.000000
   24       13.626757   0.000000
 
  0.3750000E+00  0.1250000E+00  0.1250000E+00  0.3750000E+00
    1        2.777565   1.000000
    2        4.354694   1.000000
    3        5.084737   1.000000
    4        5.084737   1.000000
    5        5.298990   1.000000
    6        5.649480   1.000000
    7        5.649480   1.000000
    8        6.196551   1.000000
    9        7.176480   1.000000
   10        7.176480   1.000000
   11        7.542866   1.000000
   12        7.595312   1.000000
   13        7.871160   1.000000
   14        8.785409   1.000000
   15        8.964791   1.000000
   16        9.201978   1.000000
   17        9.201978   1.000000
   18        9.755512   1.000000
   19       10.539131   0.964993
   20       10.612931   0.901469
   21       10.862226   0.318172
   22       10.862226   0.318172
   23       16.063649   0.000000
   24       16.063649   0.000000
 
  0.3750000E+00  0.3750000E+00  0.1250000E+00  0.3750000E+00
    1        3.711622   1.000000
    2        4.862614   1.000000
    3        4.862614   1.000000
    4        5.042828   1.000000
    5        6.185858   1.000000
    6        6.315661   1.000000
    7        6.315661   1.000000
    8        6.518352   1.000000
    9        6.580071   1.000000
   10        6.580071   1.000000
   11        7.220794   1.000000
   12        7.274000   1.000000
   13        7.760355   1.000000
   14        8.422873   1.000000
   15        8.447767   1.000000
   16        8.447767   1.000000
   17        8.982643   1.000000
   18       10.084931   1.000000
   19       10.084931   1.000000
   20       10.227197   0.999971
   21       10.780624   0.541493
   22       12.702806   0.000000
   23       12.702806   0.000000
   24       14.609046   0.000000
 
  0.3750000E+00  0.3750000E+00  0.3750000E+00  0.1250000E+00
    1        3.575201   1.000000
    2        4.088646   1.000000
    3        4.088646   1.000000
    4        4.088646   1.000000
    5        6.694097   1.000000
    6        6.694097   1.000000
    7        6.694097   1.000000
    8        7.199503   1.000000
    9        7.199503   1.000000
   10        7.478565   1.000000
   11        7.478565   1.000000
   12        7.478565   1.000000
   13        8.323536   1.000000
   14        8.323536   1.000000
   15        8.323536   1.000000
   16        8.395263   1.000000
   17       10.325628   0.999552
   18       10.325628   0.999552
   19       10.881384   0.271501
   20       10.881384   0.271501
   21       10.881384   0.271501
   22       12.757805   0.000000
   23       12.757805   0.000000
   24       12.757805   0.000000
