       N       E                     dE             d eps       ncg     rms          rms(c)
DAV:   1     0.157393611602E+03    0.15739E+03   -0.15184E+04   208   0.102E+03
DAV:   2    -0.284946715507E+02   -0.18589E+03   -0.18157E+03   248   0.252E+02
DAV:   3    -0.317902877835E+02   -0.32956E+01   -0.32722E+01   192   0.357E+01
DAV:   4    -0.318303511816E+02   -0.40063E-01   -0.39910E-01   232   0.383E+00
DAV:   5    -0.318307833501E+02   -0.43217E-03   -0.43215E-03   192   0.394E-01    0.251E+01
DAV:   6    -0.302031925156E+02    0.16276E+01   -0.38054E+00   192   0.141E+01    0.129E+01
DAV:   7    -0.300338949861E+02    0.16930E+00   -0.64842E-01   208   0.549E+00    0.454E+00
DAV:   8    -0.300166376524E+02    0.17257E-01   -0.50105E-02   192   0.171E+00    0.133E+00
DAV:   9    -0.300155655205E+02    0.10721E-02   -0.11191E-03   216   0.273E-01    0.432E-02
DAV:  10    -0.300155783386E+02   -0.12818E-04   -0.10079E-05   208   0.171E-02    0.219E-02
DAV:  11    -0.300155789251E+02   -0.58643E-06   -0.23338E-06   120   0.108E-02
   1 F= -.30015579E+02 E0= -.29923411E+02  d E =-.184337E+00
