 vasp.5.4.4.18Apr17-6-g9f103f2a35 (build Aug 24 2024 05:40:03) complex          
  
 executed on           IFC22_IMPI date 2025.09.12  19:49:18
 running on    1 total cores
 distrk:  each k-point on    1 cores,    1 groups
 distr:  one band on NCORES_PER_BAND=   1 cores,    1 groups


--------------------------------------------------------------------------------------------------------


 INCAR:
 POTCAR:    PAW Pt_new 15Nov2007                  
 POTCAR:    PAW Pt_new 15Nov2007                  
   VRHFIN =Pt: s1d9                                                             
   LEXCH  = CA                                                                  
   EATOM  =   732.2164 eV,   53.8164 Ry                                         
                                                                                
   TITEL  = PAW Pt_new 15Nov2007                                                
   LULTRA =        F    use ultrasoft PP ?                                      
   IUNSCR =        1    unscreen: 0-lin 1-nonlin 2-no                           
   RPACOR =    2.330    partial core radius                                     
   POMASS =  195.080; ZVAL   =   10.000    mass and valenz                      
   RCORE  =    2.600    outmost cutoff radius                                   
   RWIGS  =    2.750; RWIGS  =    1.455    wigner-seitz radius (au A)           
   ENMAX  =  230.228; ENMIN  =  172.671 eV                                      
   ICORE  =        3    local potential                                         
   LCOR   =        T    correct aug charges                                     
   LPAW   =        T    paw PP                                                  
   EAUG   =  358.966                                                            
   DEXC   =    0.000                                                            
   RMAX   =    2.658    core radius for proj-oper                               
   RAUG   =    1.300    factor for augmentation sphere                          
   RDEP   =    2.761    radius for radial grids                                 
   RDEPT  =    2.203    core radius for aug-charge                              
                                                                                
   Atomic configuration                                                         
   16 entries                                                                   
     n  l   j            E        occ.                                          
     1  0  0.50    -77849.0312   2.0000                                         
     2  0  0.50    -13689.6450   2.0000                                         
     2  1  1.50    -11882.1475   6.0000                                         
     3  0  0.50     -3217.2643   2.0000                                         
     3  1  1.50     -2689.9062   6.0000                                         
     3  2  2.50     -2116.3585  10.0000                                         
     4  0  0.50      -690.6046   2.0000                                         
     4  1  1.50      -517.2844   6.0000                                         
     4  2  2.50      -306.3029  10.0000                                         
     4  3  3.50       -70.8709  14.0000                                         
     5  0  0.50      -101.6209   2.0000                                         
     5  1  1.50       -56.0709   6.0000                                         
     5  2  2.50        -6.3990   9.0000                                         
     6  0  0.50        -5.9275   1.0000                                         
     6  1  1.50        -6.8029   0.0000                                         
     5  3  2.50        -1.3606   0.0000                                         
   Description                                                                  
     l       E           TYP  RCUT    TYP  RCUT                                 
     2     -6.3989519     23  2.500                                             
     2     -7.7595345     23  2.500                                             
     0     -5.9274754     23  2.500                                             
     0      0.5140328     23  2.500                                             
     1     -2.7211652     23  2.600                                             
     1     20.4087390     23  2.600                                             
     3     -1.3605826     23  2.500                                             
  local pseudopotential read in
  partial core-charges read in
  partial kinetic energy density read in
  atomic valenz-charges read in
  non local Contribution for L=           2  read in
    real space projection operators read in
  non local Contribution for L=           2  read in
    real space projection operators read in
  non local Contribution for L=           0  read in
    real space projection operators read in
  non local Contribution for L=           0  read in
    real space projection operators read in
  non local Contribution for L=           1  read in
    real space projection operators read in
  non local Contribution for L=           1  read in
    real space projection operators read in
    PAW grid and wavefunctions read in
 
   number of l-projection  operators is LMAX  =           6
   number of lm-projection operators is LMMAX =          18
 
  PAW Pt_new 15Nov2007                  :
 energy of atom  1       EATOM= -732.2164
 kinetic energy error for atom=    0.0415 (will be added to EATOM!!)
 
 
 POSCAR: Pt                                      
  positions in cartesian coordinates
  No initial velocities read in
 exchange correlation table for  LEXCH =        2
   RHO(1)=    0.500       N(1)  =     2000
   RHO(2)=  100.500       N(2)  =     4000
 


--------------------------------------------------------------------------------------------------------


 ion  position               nearest neighbor table
   1  0.000  0.000  0.000-   2 2.79   3 2.79   4 2.79   2 2.79   3 2.79   2 2.79   4 2.79   2 2.79
                             3 2.79   4 2.79   3 2.79   4 2.79
   2  0.000  0.500  0.500-   1 2.79   3 2.79   4 2.79   1 2.79   4 2.79   1 2.79   3 2.79   1 2.79
                             3 2.79   4 2.79   4 2.79   3 2.79
   3  0.500  0.000  0.500-   1 2.79   2 2.79   4 2.79   1 2.79   4 2.79   2 2.79   4 2.79   4 2.79
                             1 2.79   2 2.79   1 2.79   2 2.79
   4  0.500  0.500  0.000-   1 2.79   2 2.79   3 2.79   2 2.79   3 2.79   1 2.79   3 2.79   3 2.79
                             1 2.79   2 2.79   2 2.79   1 2.79
 
  LATTYP: Found a simple cubic cell.
 ALAT       =     3.9431503619
  
  Lattice vectors:
  
 A1 = (   3.9431503619,   0.0000000000,   0.0000000000)
 A2 = (   0.0000000000,   3.9431503619,   0.0000000000)
 A3 = (   0.0000000000,   0.0000000000,   3.9431503619)


Analysis of symmetry for initial positions (statically):
=====================================================================
 Subroutine PRICEL returns following result:
 
  LATTYP: Found a face centered cubic cell.
 ALAT       =     3.9431503619
  
  Lattice vectors:
  
 A1 = (   1.9715751809,   1.9715751809,   0.0000000000)
 A2 = (   1.9715751809,   0.0000000000,  -1.9715751809)
 A3 = (   0.0000000000,   1.9715751809,  -1.9715751809)
 
   4 primitive cells build up your supercell.
 

 Routine SETGRP: Setting up the symmetry group for a 
 simple cubic supercell.


 Subroutine GETGRP returns: Found 48 space group operations
 (whereof 48 operations were pure point group operations)
 out of a pool of 48 trial point group operations.


The static configuration has the point symmetry O_h .


Analysis of symmetry for dynamics (positions and initial velocities):
=====================================================================
 Subroutine PRICEL returns following result:
 
  LATTYP: Found a face centered cubic cell.
 ALAT       =     3.9431503619
  
  Lattice vectors:
  
 A1 = (   1.9715751809,   1.9715751809,   0.0000000000)
 A2 = (   1.9715751809,   0.0000000000,  -1.9715751809)
 A3 = (   0.0000000000,   1.9715751809,  -1.9715751809)
 
   4 primitive cells build up your supercell.
 

 Routine SETGRP: Setting up the symmetry group for a 
 simple cubic supercell.


 Subroutine GETGRP returns: Found 48 space group operations
 (whereof 48 operations were pure point group operations)
 out of a pool of 48 trial point group operations.


The dynamic configuration has the point symmetry O_h .


 Subroutine INISYM returns: Found 48 space group operations
 (whereof 48 operations are pure point group operations),
 and found     4 'primitive' translations

 
 
 KPOINTS: KPOINTS created by Atomic Simulation Env

Automatic generation of k-mesh.
Space group operators:
 irot       det(A)        alpha          n_x          n_y          n_z        tau_x        tau_y        tau_z
    1     1.000000     0.000000     1.000000     0.000000     0.000000     0.000000     0.000000     0.000000
    2    -1.000000     0.000000     1.000000     0.000000     0.000000     0.000000     0.000000     0.000000
    3     1.000000   120.000000    -0.577350    -0.577350    -0.577350     0.000000     0.000000     0.000000
    4    -1.000000   120.000000    -0.577350    -0.577350    -0.577350     0.000000     0.000000     0.000000
    5     1.000000   120.000000     0.577350     0.577350     0.577350     0.000000     0.000000     0.000000
    6    -1.000000   120.000000     0.577350     0.577350     0.577350     0.000000     0.000000     0.000000
    7     1.000000    90.000000     0.000000     0.000000    -1.000000     0.000000     0.000000     0.000000
    8    -1.000000    90.000000     0.000000     0.000000    -1.000000     0.000000     0.000000     0.000000
    9     1.000000   180.000000     0.000000    -0.707107    -0.707107     0.000000     0.000000     0.000000
   10    -1.000000   180.000000     0.000000    -0.707107    -0.707107     0.000000     0.000000     0.000000
   11     1.000000    90.000000     0.000000     1.000000     0.000000     0.000000     0.000000     0.000000
   12    -1.000000    90.000000     0.000000     1.000000     0.000000     0.000000     0.000000     0.000000
   13     1.000000   180.000000    -0.000000    -0.000000     1.000000     0.000000     0.000000     0.000000
   14    -1.000000   180.000000    -0.000000    -0.000000     1.000000     0.000000     0.000000     0.000000
   15     1.000000   120.000000    -0.577350     0.577350     0.577350     0.000000     0.000000     0.000000
   16    -1.000000   120.000000    -0.577350     0.577350     0.577350     0.000000     0.000000     0.000000
   17     1.000000   120.000000    -0.577350     0.577350    -0.577350     0.000000     0.000000     0.000000
   18    -1.000000   120.000000    -0.577350     0.577350    -0.577350     0.000000     0.000000     0.000000
   19     1.000000    90.000000    -0.000000    -0.000000     1.000000     0.000000     0.000000     0.000000
   20    -1.000000    90.000000    -0.000000    -0.000000     1.000000     0.000000     0.000000     0.000000
   21     1.000000    90.000000    -1.000000     0.000000    -0.000000     0.000000     0.000000     0.000000
   22    -1.000000    90.000000    -1.000000     0.000000    -0.000000     0.000000     0.000000     0.000000
   23     1.000000   180.000000    -0.707107     0.000000    -0.707107     0.000000     0.000000     0.000000
   24    -1.000000   180.000000    -0.707107     0.000000    -0.707107     0.000000     0.000000     0.000000
   25     1.000000   120.000000     0.577350    -0.577350     0.577350     0.000000     0.000000     0.000000
   26    -1.000000   120.000000     0.577350    -0.577350     0.577350     0.000000     0.000000     0.000000
   27     1.000000   120.000000    -0.577350    -0.577350     0.577350     0.000000     0.000000     0.000000
   28    -1.000000   120.000000    -0.577350    -0.577350     0.577350     0.000000     0.000000     0.000000
   29     1.000000   180.000000     1.000000    -0.000000     0.000000     0.000000     0.000000     0.000000
   30    -1.000000   180.000000     1.000000    -0.000000     0.000000     0.000000     0.000000     0.000000
   31     1.000000    90.000000    -0.000000    -1.000000     0.000000     0.000000     0.000000     0.000000
   32    -1.000000    90.000000    -0.000000    -1.000000     0.000000     0.000000     0.000000     0.000000
   33     1.000000   180.000000     0.707107     0.707107     0.000000     0.000000     0.000000     0.000000
   34    -1.000000   180.000000     0.707107     0.707107     0.000000     0.000000     0.000000     0.000000
   35     1.000000    90.000000     1.000000    -0.000000    -0.000000     0.000000     0.000000     0.000000
   36    -1.000000    90.000000     1.000000    -0.000000    -0.000000     0.000000     0.000000     0.000000
   37     1.000000   120.000000     0.577350    -0.577350    -0.577350     0.000000     0.000000     0.000000
   38    -1.000000   120.000000     0.577350    -0.577350    -0.577350     0.000000     0.000000     0.000000
   39     1.000000   180.000000     0.000000     1.000000     0.000000     0.000000     0.000000     0.000000
   40    -1.000000   180.000000     0.000000     1.000000     0.000000     0.000000     0.000000     0.000000
   41     1.000000   120.000000     0.577350     0.577350    -0.577350     0.000000     0.000000     0.000000
   42    -1.000000   120.000000     0.577350     0.577350    -0.577350     0.000000     0.000000     0.000000
   43     1.000000   180.000000    -0.000000    -0.707107     0.707107     0.000000     0.000000     0.000000
   44    -1.000000   180.000000    -0.000000    -0.707107     0.707107     0.000000     0.000000     0.000000
   45     1.000000   180.000000     0.707107    -0.707107     0.000000     0.000000     0.000000     0.000000
   46    -1.000000   180.000000     0.707107    -0.707107     0.000000     0.000000     0.000000     0.000000
   47     1.000000   180.000000     0.707107    -0.000000    -0.707107     0.000000     0.000000     0.000000
   48    -1.000000   180.000000     0.707107    -0.000000    -0.707107     0.000000     0.000000     0.000000
 
 Subroutine IBZKPT returns following result:
 ===========================================
 
 Found      4 irreducible k-points:
 
 Following reciprocal coordinates:
            Coordinates               Weight
  0.125000  0.125000  0.125000      8.000000
  0.375000  0.125000  0.125000     24.000000
  0.375000  0.375000  0.125000     24.000000
  0.375000  0.375000  0.375000      8.000000
 
 Following cartesian coordinates:
            Coordinates               Weight
  0.031701  0.031701  0.031701      8.000000
  0.095102  0.031701  0.031701     24.000000
  0.095102  0.095102  0.031701     24.000000
  0.095102  0.095102  0.095102      8.000000
 


--------------------------------------------------------------------------------------------------------




 Dimension of arrays:
   k-points           NKPTS =      4   k-points in BZ     NKDIM =      4   number of bands    NBANDS=     24
   number of dos      NEDOS =    301   number of ions     NIONS =      4
   non local maximal  LDIM  =      6   non local SUM 2l+1 LMDIM =     18
   total plane-waves  NPLWV =   5832
   max r-space proj   IRMAX =      1   max aug-charges    IRDMAX=   5960
   dimension x,y,z NGX =    18 NGY =   18 NGZ =   18
   dimension x,y,z NGXF=    36 NGYF=   36 NGZF=   36
   support grid    NGXF=    36 NGYF=   36 NGZF=   36
   ions per type =               4
   NGX,Y,Z   is equivalent  to a cutoff of   7.59,  7.59,  7.59 a.u.
   NGXF,Y,Z  is equivalent  to a cutoff of  15.18, 15.18, 15.18 a.u.

 SYSTEM =  unknown system                          
 POSCAR =  Pt                                      

 Startparameter for this run:
   NWRITE =      2    write-flag & timer
   PREC   = normal    normal or accurate (medium, high low for compatibility)
   ISTART =      0    job   : 0-new  1-cont  2-samecut
   ICHARG =      2    charge: 1-file 2-atom 10-const
   ISPIN  =      1    spin polarized calculation?
   LNONCOLLINEAR =      F non collinear calculations
   LSORBIT =      F    spin-orbit coupling
   INIWAV =      1    electr: 0-lowe 1-rand  2-diag
   LASPH  =      F    aspherical Exc in radial PAW
   METAGGA=      F    non-selfconsistent MetaGGA calc.

 Electronic Relaxation 1
   ENCUT  =  300.0 eV  22.05 Ry    4.70 a.u.   5.57  5.57  5.57*2*pi/ulx,y,z
   ENINI  =  300.0     initial cutoff
   ENAUG  =  359.0 eV  augmentation charge cutoff
   NELM   =    100;   NELMIN=  2; NELMDL=  0     # of ELM steps 
   EDIFF  = 0.1E-05   stopping-criterion for ELM
   LREAL  =      F    real-space projection
   NLSPLINE    = F    spline interpolate recip. space projectors
   LCOMPAT=      F    compatible to vasp.4.4
   GGA_COMPAT  = T    GGA compatible to vasp.4.4-vasp.4.6
   LMAXPAW     = -100 max onsite density
   LMAXMIX     =    2 max onsite mixed and CHGCAR
   VOSKOWN=      0    Vosko Wilk Nusair interpolation
   ROPT   =    0.00000
 Ionic relaxation
   EDIFFG = 0.1E-04   stopping-criterion for IOM
   NSW    =      0    number of steps for IOM
   NBLOCK =      1;   KBLOCK =      1    inner block; outer block 
   IBRION =     -1    ionic relax: 0-MD 1-quasi-New 2-CG
   NFREE  =      0    steps in history (QN), initial steepest desc. (CG)
   ISIF   =      2    stress and relaxation
   IWAVPR =     10    prediction:  0-non 1-charg 2-wave 3-comb
   ISYM   =      2    0-nonsym 1-usesym 2-fastsym
   LCORR  =      T    Harris-Foulkes like correction to forces

   POTIM  = 0.5000    time-step for ionic-motion
   TEIN   =    0.0    initial temperature
   TEBEG  =    0.0;   TEEND  =   0.0 temperature during run
   SMASS  =  -3.00    Nose mass-parameter (am)
   estimated Nose-frequenzy (Omega)   =  0.10E-29 period in steps =****** mass=  -0.355E-27a.u.
   SCALEE = 1.0000    scale energy and forces
   NPACO  =    256;   APACO  = 16.0  distance and # of slots for P.C.
   PSTRESS=    0.0 pullay stress

  Mass of Ions in am
   POMASS = 195.08
  Ionic Valenz
   ZVAL   =  10.00
  Atomic Wigner-Seitz radii
   RWIGS  =  -1.00
  virtual crystal weights 
   VCA    =   1.00
   NELECT =      40.0000    total number of electrons
   NUPDOWN=      -1.0000    fix difference up-down

 DOS related values:
   EMIN   =  10.00;   EMAX   =-10.00  energy-range for DOS
   EFERMI =   0.00
   ISMEAR =     0;   SIGMA  =   0.20  broadening in eV -4-tet -1-fermi 0-gaus

 Electronic relaxation 2 (details)
   IALGO  =     38    algorithm
   LDIAG  =      T    sub-space diagonalisation (order eigenvalues)
   LSUBROT=      F    optimize rotation matrix (better conditioning)
   TURBO    =      0    0=normal 1=particle mesh
   IRESTART =      0    0=no restart 2=restart with 2 vectors
   NREBOOT  =      0    no. of reboots
   NMIN     =      0    reboot dimension
   EREF     =   0.00    reference energy to select bands
   IMIX   =      4    mixing-type and parameters
     AMIX     =   0.40;   BMIX     =  1.00
     AMIX_MAG =   1.60;   BMIX_MAG =  1.00
     AMIN     =   0.10
     WC   =   100.;   INIMIX=   1;  MIXPRE=   1;  MAXMIX= -45

 Intra band minimization:
   WEIMIN = 0.0000     energy-eigenvalue tresh-hold
   EBREAK =  0.10E-07  absolut break condition
   DEPER  =   0.30     relativ break condition  

   TIME   =   0.40     timestep for ELM

  volume/ion in A,a.u.               =      15.33       103.43
  Fermi-wavevector in a.u.,A,eV,Ry     =   1.419880  2.683183 27.430132  2.016058
  Thomas-Fermi vector in A             =   2.540854
 
 Write flags
   LWAVE        =      F    write WAVECAR
   LDOWNSAMPLE  =      F    k-point downsampling of WAVECAR
   LCHARG       =      F    write CHGCAR
   LVTOT        =      F    write LOCPOT, total local potential
   LVHAR        =      F    write LOCPOT, Hartree potential only
   LELF         =      F    write electronic localiz. function (ELF)
   LORBIT       =      0    0 simple, 1 ext, 2 COOP (PROOUT), +10 PAW based schemes


 Dipole corrections
   LMONO  =      F    monopole corrections only (constant potential shift)
   LDIPOL =      F    correct potential (dipole corrections)
   IDIPOL =      0    1-x, 2-y, 3-z, 4-all directions 
   EPSILON=  1.0000000 bulk dielectric constant

 Exchange correlation treatment:
   GGA     =    --    GGA type
   LEXCH   =     2    internal setting for exchange type
   VOSKOWN=      0    Vosko Wilk Nusair interpolation
   LHFCALC =     F    Hartree Fock is set to
   LHFONE  =     F    Hartree Fock one center treatment
   AEXX    =    0.0000 exact exchange contribution

 Linear response parameters
   LEPSILON=     F    determine dielectric tensor
   LRPA    =     F    only Hartree local field effects (RPA)
   LNABLA  =     F    use nabla operator in PAW spheres
   LVEL    =     F    velocity operator in full k-point grid
   LINTERFAST=   F  fast interpolation
   KINTER  =     0    interpolate to denser k-point grid
   CSHIFT  =0.1000    complex shift for real part using Kramers Kronig
   OMEGAMAX=  -1.0    maximum frequency
   DEG_THRESHOLD= 0.2000000E-02 threshold for treating states as degnerate
   RTIME   =   -0.100 relaxation time in fs
  (WPLASMAI=    0.000 imaginary part of plasma frequency in eV, 0.658/RTIME)
   DFIELD  = 0.0000000 0.0000000 0.0000000 field for delta impulse in time
 
 Orbital magnetization related:
   ORBITALMAG=     F  switch on orbital magnetization
   LCHIMAG   =     F  perturbation theory with respect to B field
   DQ        =  0.001000  dq finite difference perturbation B field
   LLRAUG    =     F  two centre corrections for induced B field



--------------------------------------------------------------------------------------------------------


 Static calculation
 charge density and potential will be updated during run
 non-spin polarized calculation
 Variant of blocked Davidson
 Davidson routine will perform the subspace rotation
 perform sub-space diagonalisation
    after iterative eigenvector-optimisation
 modified Broyden-mixing scheme, WC =      100.0
 initial mixing is a Kerker type mixing with AMIX =  0.4000 and BMIX =      1.0000
 Hartree-type preconditioning will be used
 using additional bands            4
 reciprocal scheme for non local part
 use partial core corrections
 calculate Harris-corrections to forces 
   (improved forces if not selfconsistent)
 use of overlap-Matrix (Vanderbilt PP)
 Gauss-broadening in eV      SIGMA  =   0.20


--------------------------------------------------------------------------------------------------------


  energy-cutoff  :      300.00
  volume of cell :       61.31
      direct lattice vectors                 reciprocal lattice vectors
     3.943150362  0.000000000  0.000000000     0.253604329 -0.000000000  0.000000000
     0.000000000  3.943150362  0.000000000     0.000000000  0.253604329  0.000000000
     0.000000000  0.000000000  3.943150362    -0.000000000 -0.000000000  0.253604329

  length of vectors
     3.943150362  3.943150362  3.943150362     0.253604329  0.253604329  0.253604329


 
 k-points in units of 2pi/SCALE and weight: KPOINTS created by Atomic Simulation Env
   0.03170054  0.03170054  0.03170054       0.125
   0.09510162  0.03170054  0.03170054       0.375
   0.09510162  0.09510162  0.03170054       0.375
   0.09510162  0.09510162  0.09510162       0.125
 
 k-points in reciprocal lattice and weights: KPOINTS created by Atomic Simulation Env
   0.12500000  0.12500000  0.12500000       0.125
   0.37500000  0.12500000  0.12500000       0.375
   0.37500000  0.37500000  0.12500000       0.375
   0.37500000  0.37500000  0.37500000       0.125
 
 position of ions in fractional coordinates (direct lattice) 
   0.00000000  0.00000000  0.00000000
   0.00000000  0.50000000  0.50000000
   0.50000000  0.00000000  0.50000000
   0.50000000  0.50000000  0.00000000
 
 position of ions in cartesian coordinates  (Angst):
   0.00000000  0.00000000  0.00000000
   0.00000000  1.97157518  1.97157518
   1.97157518  0.00000000  1.97157518
   1.97157518  1.97157518  0.00000000
 


--------------------------------------------------------------------------------------------------------


 k-point  1 :   0.1250 0.1250 0.1250  plane waves:     724
 k-point  2 :   0.3750 0.1250 0.1250  plane waves:     733
 k-point  3 :   0.3750 0.3750 0.1250  plane waves:     723
 k-point  4 :   0.3750 0.3750 0.3750  plane waves:     717

 maximum and minimum number of plane-waves per node :       733      717

 maximum number of plane-waves:       733
 maximum index in each direction: 
   IXMAX=    5   IYMAX=    5   IZMAX=    5
   IXMIN=   -5   IYMIN=   -5   IZMIN=   -5


 serial   3D FFT for wavefunctions
 parallel 3D FFT for charge:
    minimum data exchange during FFTs selected (reduces bandwidth)


 total amount of memory used by VASP MPI-rank0    36003. kBytes
=======================================================================

   base      :      30000. kBytes
   nonl-proj :        469. kBytes
   fftplans  :       1676. kBytes
   grid      :       2560. kBytes
   one-center:         62. kBytes
   wavefun   :       1236. kBytes
 
     INWAV:  cpu time    0.0000: real time    0.0000
 Broyden mixing: mesh for mixing (old mesh)
   NGX = 11   NGY = 11   NGZ = 11
  (NGX  = 36   NGY  = 36   NGZ  = 36)
  gives a total of   1331 points

 initial charge density was supplied:
 charge density of overlapping atoms calculated
 number of electron      40.0000000 magnetization 
 keeping initial charge density in first step


--------------------------------------------------------------------------------------------------------


 Maximum index for augmentation-charges         5575 (set IRDMAX)


--------------------------------------------------------------------------------------------------------


 First call to EWALD:  gamma=   0.450
 Maximum number of real-space cells 3x 3x 3
 Maximum number of reciprocal cells 3x 3x 3

    FEWALD:  cpu time    0.0015: real time    0.0015


--------------------------------------- Iteration      1(   1)  ---------------------------------------


    POTLOK:  cpu time    0.0053: real time    0.0053
    SETDIJ:  cpu time    0.0089: real time    0.0088
     EDDAV:  cpu time    0.1157: real time    0.1156
       DOS:  cpu time    0.0005: real time    0.0005
    --------------------------------------------
      LOOP:  cpu time    0.1304: real time    0.1303

 eigenvalue-minimisations  :   208
 total energy-change (2. order) : 0.1573936E+03  (-0.1518418E+04)
 number of electron      40.0000000 magnetization 
 augmentation part       40.0000000 magnetization 

 Free energy of the ion-electron system (eV)
  ---------------------------------------------------
  alpha Z        PSCENC =       239.95561605
  Ewald energy   TEWEN  =     -3348.64424118
  -Hartree energ DENC   =      -288.93692721
  -exchange      EXHF   =         0.00000000
  -V(xc)+E(xc)   XCENC  =        17.18126372
  PAW double counting   =      2778.60765816    -2674.15502866
  entropy T*S    EENTRO =        -0.09685362
  eigenvalues    EBANDS =       504.78241495
  atomic energy  EATOM  =      2928.69970938
  Solvation  Ediel_sol  =         0.00000000
  ---------------------------------------------------
  free energy    TOTEN  =       157.39361160 eV

  energy without entropy =      157.49046522  energy(sigma->0) =      157.44203841


--------------------------------------------------------------------------------------------------------




--------------------------------------- Iteration      1(   2)  ---------------------------------------


     EDDAV:  cpu time    0.1320: real time    0.1320
       DOS:  cpu time    0.0006: real time    0.0006
    --------------------------------------------
      LOOP:  cpu time    0.1326: real time    0.1326

 eigenvalue-minimisations  :   248
 total energy-change (2. order) :-0.1858883E+03  (-0.1815654E+03)
 number of electron      40.0000000 magnetization 
 augmentation part       40.0000000 magnetization 

 Free energy of the ion-electron system (eV)
  ---------------------------------------------------
  alpha Z        PSCENC =       239.95561605
  Ewald energy   TEWEN  =     -3348.64424118
  -Hartree energ DENC   =      -288.93692721
  -exchange      EXHF   =         0.00000000
  -V(xc)+E(xc)   XCENC  =        17.18126372
  PAW double counting   =      2778.60765816    -2674.15502866
  entropy T*S    EENTRO =        -0.14085860
  eigenvalues    EBANDS =       318.93813677
  atomic energy  EATOM  =      2928.69970938
  Solvation  Ediel_sol  =         0.00000000
  ---------------------------------------------------
  free energy    TOTEN  =       -28.49467155 eV

  energy without entropy =      -28.35381295  energy(sigma->0) =      -28.42424225


--------------------------------------------------------------------------------------------------------




--------------------------------------- Iteration      1(   3)  ---------------------------------------


     EDDAV:  cpu time    0.1074: real time    0.1073
       DOS:  cpu time    0.0007: real time    0.0007
    --------------------------------------------
      LOOP:  cpu time    0.1080: real time    0.1080

 eigenvalue-minimisations  :   192
 total energy-change (2. order) :-0.3295616E+01  (-0.3272156E+01)
 number of electron      40.0000000 magnetization 
 augmentation part       40.0000000 magnetization 

 Free energy of the ion-electron system (eV)
  ---------------------------------------------------
  alpha Z        PSCENC =       239.95561605
  Ewald energy   TEWEN  =     -3348.64424118
  -Hartree energ DENC   =      -288.93692721
  -exchange      EXHF   =         0.00000000
  -V(xc)+E(xc)   XCENC  =        17.18126372
  PAW double counting   =      2778.60765816    -2674.15502866
  entropy T*S    EENTRO =        -0.14912326
  eigenvalues    EBANDS =       315.65078521
  atomic energy  EATOM  =      2928.69970938
  Solvation  Ediel_sol  =         0.00000000
  ---------------------------------------------------
  free energy    TOTEN  =       -31.79028778 eV

  energy without entropy =      -31.64116452  energy(sigma->0) =      -31.71572615


--------------------------------------------------------------------------------------------------------




--------------------------------------- Iteration      1(   4)  ---------------------------------------


     EDDAV:  cpu time    0.1269: real time    0.1269
       DOS:  cpu time    0.0006: real time    0.0006
    --------------------------------------------
      LOOP:  cpu time    0.1275: real time    0.1275

 eigenvalue-minimisations  :   232
 total energy-change (2. order) :-0.4006340E-01  (-0.3990987E-01)
 number of electron      40.0000000 magnetization 
 augmentation part       40.0000000 magnetization 

 Free energy of the ion-electron system (eV)
  ---------------------------------------------------
  alpha Z        PSCENC =       239.95561605
  Ewald energy   TEWEN  =     -3348.64424118
  -Hartree energ DENC   =      -288.93692721
  -exchange      EXHF   =         0.00000000
  -V(xc)+E(xc)   XCENC  =        17.18126372
  PAW double counting   =      2778.60765816    -2674.15502866
  entropy T*S    EENTRO =        -0.15051831
  eigenvalues    EBANDS =       315.61211686
  atomic energy  EATOM  =      2928.69970938
  Solvation  Ediel_sol  =         0.00000000
  ---------------------------------------------------
  free energy    TOTEN  =       -31.83035118 eV

  energy without entropy =      -31.67983287  energy(sigma->0) =      -31.75509203


--------------------------------------------------------------------------------------------------------




--------------------------------------- Iteration      1(   5)  ---------------------------------------


     EDDAV:  cpu time    0.1102: real time    0.1102
       DOS:  cpu time    0.0006: real time    0.0006
    CHARGE:  cpu time    0.0169: real time    0.0169
    MIXING:  cpu time    0.0009: real time    0.0009
    --------------------------------------------
      LOOP:  cpu time    0.1287: real time    0.1286

 eigenvalue-minimisations  :   192
 total energy-change (2. order) :-0.4321685E-03  (-0.4321524E-03)
 number of electron      39.9999993 magnetization 
 augmentation part       11.5122961 magnetization 

 Broyden mixing:
  rms(total) = 0.25101E+01    rms(broyden)= 0.25100E+01
  rms(prec ) = 0.30855E+01
  weight for this iteration     100.00

 Free energy of the ion-electron system (eV)
  ---------------------------------------------------
  alpha Z        PSCENC =       239.95561605
  Ewald energy   TEWEN  =     -3348.64424118
  -Hartree energ DENC   =      -288.93692721
  -exchange      EXHF   =         0.00000000
  -V(xc)+E(xc)   XCENC  =        17.18126372
  PAW double counting   =      2778.60765816    -2674.15502866
  entropy T*S    EENTRO =        -0.15052959
  eigenvalues    EBANDS =       315.61169597
  atomic energy  EATOM  =      2928.69970938
  Solvation  Ediel_sol  =         0.00000000
  ---------------------------------------------------
  free energy    TOTEN  =       -31.83078335 eV

  energy without entropy =      -31.68025376  energy(sigma->0) =      -31.75551855


--------------------------------------------------------------------------------------------------------




--------------------------------------- Iteration      1(   6)  ---------------------------------------


    POTLOK:  cpu time    0.0046: real time    0.0046
    SETDIJ:  cpu time    0.0099: real time    0.0098
     EDDAV:  cpu time    0.1104: real time    0.1103
       DOS:  cpu time    0.0006: real time    0.0006
    CHARGE:  cpu time    0.0166: real time    0.0166
    MIXING:  cpu time    0.0010: real time    0.0010
    --------------------------------------------
      LOOP:  cpu time    0.1431: real time    0.1431

 eigenvalue-minimisations  :   192
 total energy-change (2. order) : 0.1627591E+01  (-0.3805434E+00)
 number of electron      39.9999991 magnetization 
 augmentation part       12.0557252 magnetization 

 Broyden mixing:
  rms(total) = 0.12884E+01    rms(broyden)= 0.12884E+01
  rms(prec ) = 0.13896E+01
  weight for this iteration     100.00

 eigenvalues of (default mixing * dielectric matrix)
  average eigenvalue GAMMA=   1.9289
  1.9289

 Free energy of the ion-electron system (eV)
  ---------------------------------------------------
  alpha Z        PSCENC =       239.95561605
  Ewald energy   TEWEN  =     -3348.64424118
  -Hartree energ DENC   =      -260.12955585
  -exchange      EXHF   =         0.00000000
  -V(xc)+E(xc)   XCENC  =        15.86068255
  PAW double counting   =      3140.52973575    -3042.37841901
  entropy T*S    EENTRO =        -0.17570273
  eigenvalues    EBANDS =       296.07898252
  atomic energy  EATOM  =      2928.69970938
  Solvation  Ediel_sol  =         0.00000000
  ---------------------------------------------------
  free energy    TOTEN  =       -30.20319252 eV

  energy without entropy =      -30.02748979  energy(sigma->0) =      -30.11534115


--------------------------------------------------------------------------------------------------------




--------------------------------------- Iteration      1(   7)  ---------------------------------------


    POTLOK:  cpu time    0.0045: real time    0.0045
    SETDIJ:  cpu time    0.0091: real time    0.0091
     EDDAV:  cpu time    0.1176: real time    0.1175
       DOS:  cpu time    0.0006: real time    0.0006
    CHARGE:  cpu time    0.0166: real time    0.0166
    MIXING:  cpu time    0.0010: real time    0.0010
    --------------------------------------------
      LOOP:  cpu time    0.1495: real time    0.1494

 eigenvalue-minimisations  :   208
 total energy-change (2. order) : 0.1692975E+00  (-0.6484233E-01)
 number of electron      39.9999990 magnetization 
 augmentation part       12.2924249 magnetization 

 Broyden mixing:
  rms(total) = 0.45421E+00    rms(broyden)= 0.45420E+00
  rms(prec ) = 0.46011E+00
  weight for this iteration     100.00

 eigenvalues of (default mixing * dielectric matrix)
  average eigenvalue GAMMA=   2.1370
  1.3122  2.9618

 Free energy of the ion-electron system (eV)
  ---------------------------------------------------
  alpha Z        PSCENC =       239.95561605
  Ewald energy   TEWEN  =     -3348.64424118
  -Hartree energ DENC   =      -246.94614457
  -exchange      EXHF   =         0.00000000
  -V(xc)+E(xc)   XCENC  =        15.26613965
  PAW double counting   =      3481.69098124    -3388.26473033
  entropy T*S    EENTRO =        -0.18631961
  eigenvalues    EBANDS =       288.39509438
  atomic energy  EATOM  =      2928.69970938
  Solvation  Ediel_sol  =         0.00000000
  ---------------------------------------------------
  free energy    TOTEN  =       -30.03389499 eV

  energy without entropy =      -29.84757538  energy(sigma->0) =      -29.94073518


--------------------------------------------------------------------------------------------------------




--------------------------------------- Iteration      1(   8)  ---------------------------------------


    POTLOK:  cpu time    0.0045: real time    0.0045
    SETDIJ:  cpu time    0.0091: real time    0.0091
     EDDAV:  cpu time    0.1103: real time    0.1102
       DOS:  cpu time    0.0006: real time    0.0006
    CHARGE:  cpu time    0.0168: real time    0.0168
    MIXING:  cpu time    0.0010: real time    0.0010
    --------------------------------------------
      LOOP:  cpu time    0.1423: real time    0.1422

 eigenvalue-minimisations  :   192
 total energy-change (2. order) : 0.1725733E-01  (-0.5010527E-02)
 number of electron      39.9999991 magnetization 
 augmentation part       12.2459477 magnetization 

 Broyden mixing:
  rms(total) = 0.13312E+00    rms(broyden)= 0.13312E+00
  rms(prec ) = 0.13346E+00
  weight for this iteration     100.00

 eigenvalues of (default mixing * dielectric matrix)
  average eigenvalue GAMMA=   1.5926
  2.4193  1.1013  1.2572

 Free energy of the ion-electron system (eV)
  ---------------------------------------------------
  alpha Z        PSCENC =       239.95561605
  Ewald energy   TEWEN  =     -3348.64424118
  -Hartree energ DENC   =      -247.17268291
  -exchange      EXHF   =         0.00000000
  -V(xc)+E(xc)   XCENC  =        15.26432060
  PAW double counting   =      3704.31871170    -3613.13046698
  entropy T*S    EENTRO =        -0.18403711
  eigenvalues    EBANDS =       290.87643279
  atomic energy  EATOM  =      2928.69970938
  Solvation  Ediel_sol  =         0.00000000
  ---------------------------------------------------
  free energy    TOTEN  =       -30.01663765 eV

  energy without entropy =      -29.83260054  energy(sigma->0) =      -29.92461910


--------------------------------------------------------------------------------------------------------




--------------------------------------- Iteration      1(   9)  ---------------------------------------


    POTLOK:  cpu time    0.0045: real time    0.0045
    SETDIJ:  cpu time    0.0091: real time    0.0091
     EDDAV:  cpu time    0.1208: real time    0.1207
       DOS:  cpu time    0.0006: real time    0.0006
    CHARGE:  cpu time    0.0167: real time    0.0166
    MIXING:  cpu time    0.0010: real time    0.0010
    --------------------------------------------
      LOOP:  cpu time    0.1527: real time    0.1527

 eigenvalue-minimisations  :   216
 total energy-change (2. order) : 0.1072132E-02  (-0.1119129E-03)
 number of electron      39.9999991 magnetization 
 augmentation part       12.2527855 magnetization 

 Broyden mixing:
  rms(total) = 0.43239E-02    rms(broyden)= 0.43228E-02
  rms(prec ) = 0.48319E-02
  weight for this iteration     100.00

 eigenvalues of (default mixing * dielectric matrix)
  average eigenvalue GAMMA=   1.9813
  3.1422  2.4949  0.9981  1.2901

 Free energy of the ion-electron system (eV)
  ---------------------------------------------------
  alpha Z        PSCENC =       239.95561605
  Ewald energy   TEWEN  =     -3348.64424118
  -Hartree energ DENC   =      -247.35440676
  -exchange      EXHF   =         0.00000000
  -V(xc)+E(xc)   XCENC  =        15.27442888
  PAW double counting   =      3654.75768409    -3562.98221495
  entropy T*S    EENTRO =        -0.18431975
  eigenvalues    EBANDS =       290.46217871
  atomic energy  EATOM  =      2928.69970938
  Solvation  Ediel_sol  =         0.00000000
  ---------------------------------------------------
  free energy    TOTEN  =       -30.01556552 eV

  energy without entropy =      -29.83124577  energy(sigma->0) =      -29.92340565


--------------------------------------------------------------------------------------------------------




--------------------------------------- Iteration      1(  10)  ---------------------------------------


    POTLOK:  cpu time    0.0045: real time    0.0045
    SETDIJ:  cpu time    0.0091: real time    0.0091
     EDDAV:  cpu time    0.1170: real time    0.1169
       DOS:  cpu time    0.0006: real time    0.0006
    CHARGE:  cpu time    0.0166: real time    0.0166
    MIXING:  cpu time    0.0011: real time    0.0011
    --------------------------------------------
      LOOP:  cpu time    0.1490: real time    0.1490

 eigenvalue-minimisations  :   208
 total energy-change (2. order) :-0.1281817E-04  (-0.1007859E-05)
 number of electron      39.9999991 magnetization 
 augmentation part       12.2534683 magnetization 

 Broyden mixing:
  rms(total) = 0.21933E-02    rms(broyden)= 0.21932E-02
  rms(prec ) = 0.24789E-02
  weight for this iteration     100.00

 eigenvalues of (default mixing * dielectric matrix)
  average eigenvalue GAMMA=   1.6900
  2.5411  2.5411  1.2717  1.0481  1.0481

 Free energy of the ion-electron system (eV)
  ---------------------------------------------------
  alpha Z        PSCENC =       239.95561605
  Ewald energy   TEWEN  =     -3348.64424118
  -Hartree energ DENC   =      -247.37094909
  -exchange      EXHF   =         0.00000000
  -V(xc)+E(xc)   XCENC  =        15.27489242
  PAW double counting   =      3661.14959594    -3569.34224105
  entropy T*S    EENTRO =        -0.18434878
  eigenvalues    EBANDS =       290.44638796
  atomic energy  EATOM  =      2928.69970938
  Solvation  Ediel_sol  =         0.00000000
  ---------------------------------------------------
  free energy    TOTEN  =       -30.01557834 eV

  energy without entropy =      -29.83122956  energy(sigma->0) =      -29.92340395


--------------------------------------------------------------------------------------------------------




--------------------------------------- Iteration      1(  11)  ---------------------------------------


    POTLOK:  cpu time    0.0046: real time    0.0046
    SETDIJ:  cpu time    0.0090: real time    0.0090
     EDDAV:  cpu time    0.0778: real time    0.0777
       DOS:  cpu time    0.0007: real time    0.0007
    --------------------------------------------
      LOOP:  cpu time    0.0919: real time    0.0919

 eigenvalue-minimisations  :   120
 total energy-change (2. order) :-0.5864299E-06  (-0.2333797E-06)
 number of electron      39.9999991 magnetization 
 augmentation part       12.2534683 magnetization 

 Free energy of the ion-electron system (eV)
  ---------------------------------------------------
  alpha Z        PSCENC =       239.95561605
  Ewald energy   TEWEN  =     -3348.64424118
  -Hartree energ DENC   =      -247.39780385
  -exchange      EXHF   =         0.00000000
  -V(xc)+E(xc)   XCENC  =        15.27590890
  PAW double counting   =      3664.74954170    -3572.92806873
  entropy T*S    EENTRO =        -0.18433674
  eigenvalues    EBANDS =       290.45809553
  atomic energy  EATOM  =      2928.69970938
  Solvation  Ediel_sol  =         0.00000000
  ---------------------------------------------------
  free energy    TOTEN  =       -30.01557893 eV

  energy without entropy =      -29.83124219  energy(sigma->0) =      -29.92341056


--------------------------------------------------------------------------------------------------------




 average (electrostatic) potential at core
  the test charge radii are     1.2059
  (the norm of the test charge is              1.0000)
       1 -63.3125       2 -63.3125       3 -63.3125       4 -63.3125
 
 
 
 E-fermi :  10.7954     XC(G=0): -13.5980     alpha+bet :-16.4801


 k-point     1 :       0.1250    0.1250    0.1250
  band No.  band energies     occupation 
      1       1.3608      2.00000
      2       4.2428      2.00000
      3       4.2428      2.00000
      4       4.2428      2.00000
      5       4.6960      2.00000
      6       4.6960      2.00000
      7       4.6960      2.00000
      8       6.8581      2.00000
      9       7.3079      2.00000
     10       7.3079      2.00000
     11       9.1284      2.00000
     12       9.1284      2.00000
     13       9.2880      2.00000
     14       9.2880      2.00000
     15       9.2880      2.00000
     16      10.1621      1.99999
     17      10.1621      1.99999
     18      10.1621      1.99999
     19      11.0923      0.03573
     20      11.0923      0.03573
     21      11.0923      0.03573
     22      13.6268      0.00000
     23      13.6268      0.00000
     24      13.6268      0.00000

 k-point     2 :       0.3750    0.1250    0.1250
  band No.  band energies     occupation 
      1       2.7776      2.00000
      2       4.3547      2.00000
      3       5.0847      2.00000
      4       5.0847      2.00000
      5       5.2990      2.00000
      6       5.6495      2.00000
      7       5.6495      2.00000
      8       6.1966      2.00000
      9       7.1765      2.00000
     10       7.1765      2.00000
     11       7.5429      2.00000
     12       7.5953      2.00000
     13       7.8712      2.00000
     14       8.7854      2.00000
     15       8.9648      2.00000
     16       9.2020      2.00000
     17       9.2020      2.00000
     18       9.7555      2.00000
     19      10.5391      1.92999
     20      10.6129      1.80294
     21      10.8622      0.63634
     22      10.8622      0.63634
     23      16.0636      0.00000
     24      16.0636      0.00000

 k-point     3 :       0.3750    0.3750    0.1250
  band No.  band energies     occupation 
      1       3.7116      2.00000
      2       4.8626      2.00000
      3       4.8626      2.00000
      4       5.0428      2.00000
      5       6.1859      2.00000
      6       6.3157      2.00000
      7       6.3157      2.00000
      8       6.5184      2.00000
      9       6.5801      2.00000
     10       6.5801      2.00000
     11       7.2208      2.00000
     12       7.2740      2.00000
     13       7.7604      2.00000
     14       8.4229      2.00000
     15       8.4478      2.00000
     16       8.4478      2.00000
     17       8.9826      2.00000
     18      10.0849      2.00000
     19      10.0849      2.00000
     20      10.2272      1.99994
     21      10.7806      1.08299
     22      12.7028      0.00000
     23      12.7028      0.00000
     24      14.6090      0.00000

 k-point     4 :       0.3750    0.3750    0.3750
  band No.  band energies     occupation 
      1       3.5752      2.00000
      2       4.0886      2.00000
      3       4.0886      2.00000
      4       4.0886      2.00000
      5       6.6941      2.00000
      6       6.6941      2.00000
      7       6.6941      2.00000
      8       7.1995      2.00000
      9       7.1995      2.00000
     10       7.4786      2.00000
     11       7.4786      2.00000
     12       7.4786      2.00000
     13       8.3235      2.00000
     14       8.3235      2.00000
     15       8.3235      2.00000
     16       8.3953      2.00000
     17      10.3256      1.99910
     18      10.3256      1.99910
     19      10.8814      0.54300
     20      10.8814      0.54300
     21      10.8814      0.54300
     22      12.7578      0.00000
     23      12.7578      0.00000
     24      12.7578      0.00000


--------------------------------------------------------------------------------------------------------


 soft charge-density along one line, spin component           1
         0         1         2         3         4         5         6         7         8         9
 total charge-density along one line
 
 pseudopotential strength for first ion, spin component:           1
 -2.593  -0.000  -0.000  -0.000  -0.000  -2.805  -0.000  -0.000
 -0.000  -2.593  -0.000  -0.000   0.000  -0.000  -2.805  -0.000
 -0.000  -0.000  -2.546  -0.000  -0.000  -0.000  -0.000  -2.759
 -0.000  -0.000  -0.000  -2.593  -0.000  -0.000  -0.000  -0.000
 -0.000   0.000  -0.000  -0.000  -2.546  -0.000   0.000  -0.000
 -2.805  -0.000  -0.000  -0.000  -0.000  -2.998  -0.000  -0.000
 -0.000  -2.805  -0.000  -0.000   0.000  -0.000  -2.998  -0.000
 -0.000  -0.000  -2.759  -0.000  -0.000  -0.000  -0.000  -2.953
 -0.000  -0.000  -0.000  -2.805  -0.000  -0.000  -0.000  -0.000
 -0.000   0.000  -0.000  -0.000  -2.759  -0.000   0.000  -0.000
  0.000   0.000   0.000   0.000  -0.000   0.000   0.000   0.000
  0.000   0.000   0.000   0.000  -0.000   0.000   0.000   0.000
  0.000  -0.000  -0.000   0.000  -0.000   0.000  -0.000  -0.000
  0.000   0.000  -0.000   0.000  -0.000   0.000   0.000  -0.000
  0.000   0.000  -0.000  -0.000   0.000   0.000   0.000  -0.000
  0.000  -0.000  -0.000   0.000  -0.000   0.000  -0.000  -0.000
  0.000   0.000  -0.000   0.000  -0.000   0.000   0.000  -0.000
  0.000   0.000  -0.000  -0.000   0.000   0.000   0.000  -0.000
 total augmentation occupancy for first ion, spin component:           1
  4.241   0.000  -0.000   0.000  -0.000  -3.144  -0.000   0.000  -0.000   0.000   0.000  -0.000   0.000  -0.000  -0.000   0.000
  0.000   4.241   0.000   0.000  -0.000  -0.000  -3.144  -0.000  -0.000   0.000   0.000  -0.000  -0.000   0.000  -0.000  -0.000
 -0.000   0.000   5.075   0.000   0.000   0.000  -0.000  -3.305  -0.000   0.000  -0.000   0.000  -0.000  -0.000  -0.000  -0.000
  0.000   0.000   0.000   4.241   0.000  -0.000  -0.000  -0.000  -3.144  -0.000   0.000   0.000  -0.000  -0.000   0.000   0.000
 -0.000  -0.000   0.000   0.000   5.075   0.000   0.000  -0.000  -0.000  -3.305   0.000  -0.000   0.000   0.000   0.000  -0.000
 -3.144  -0.000   0.000  -0.000   0.000   3.707   0.000  -0.000   0.000   0.000   0.000   0.000  -0.000  -0.000  -0.000  -0.000
 -0.000  -3.144  -0.000  -0.000   0.000   0.000   3.707   0.000   0.000  -0.000  -0.000   0.000  -0.000  -0.000   0.000   0.000
  0.000  -0.000  -3.305  -0.000  -0.000  -0.000   0.000   3.373   0.000  -0.000   0.000  -0.000  -0.000   0.000   0.000   0.000
 -0.000  -0.000  -0.000  -3.144  -0.000   0.000   0.000   0.000   3.707   0.000  -0.000   0.000  -0.000  -0.000   0.000   0.000
  0.000   0.000   0.000  -0.000  -3.305   0.000  -0.000   0.000   0.000   3.373   0.000   0.000  -0.000  -0.000   0.000   0.000
  0.000   0.000  -0.000   0.000   0.000   0.000  -0.000   0.000  -0.000  -0.000   2.479  -0.549   0.000  -0.000   0.000   0.000
 -0.000  -0.000   0.000   0.000  -0.000   0.000   0.000  -0.000   0.000   0.000  -0.549   0.143  -0.000  -0.000   0.000  -0.000
  0.000  -0.000  -0.000  -0.000  -0.000  -0.000  -0.000  -0.000   0.000  -0.000   0.000  -0.000   0.303   0.000   0.000  -0.016
 -0.000   0.000  -0.000  -0.000   0.000  -0.000  -0.000   0.000  -0.000  -0.000  -0.000  -0.000   0.000   0.303   0.000  -0.000
 -0.000  -0.000  -0.000   0.000  -0.000  -0.000   0.000  -0.000   0.000  -0.000   0.000   0.000   0.000   0.000   0.303  -0.000
  0.000  -0.000   0.000  -0.000  -0.000  -0.000   0.000   0.000  -0.000   0.000   0.000  -0.000  -0.016  -0.000  -0.000   0.001
  0.000  -0.000   0.000   0.000  -0.000   0.000   0.000   0.000   0.000   0.000   0.000  -0.000  -0.000  -0.016  -0.000   0.000
  0.000   0.000   0.000  -0.000  -0.000   0.000  -0.000   0.000  -0.000   0.000  -0.000  -0.000  -0.000  -0.000  -0.016   0.000


------------------------ aborting loop because EDIFF is reached ----------------------------------------


    CHARGE:  cpu time    0.0161: real time    0.0161
    FORLOC:  cpu time    0.0018: real time    0.0018
    FORNL :  cpu time    0.0507: real time    0.0507
    STRESS:  cpu time    0.1234: real time    0.1234
    FORCOR:  cpu time    0.0055: real time    0.0055
    FORHAR:  cpu time    0.0045: real time    0.0045
    MIXING:  cpu time    0.0011: real time    0.0011
    OFIELD:  cpu time    0.0000: real time    0.0000

  FORCE on cell =-STRESS in cart. coord.  units (eV):
  Direction    XX          YY          ZZ          XY          YZ          ZX
  --------------------------------------------------------------------------------------
  Alpha Z   239.95562   239.95562   239.95562
  Ewald   -1116.21524 -1116.21524 -1116.21524     0.00000     0.00000     0.00000
  Hartree    82.46576    82.46576    82.46576    -0.00000    -0.00000    -0.00000
  E(xc)    -176.79707  -176.79707  -176.79707    -0.00000    -0.00000     0.00000
  Local     149.19062   149.19062   149.19062     0.00000    -0.00000     0.00000
  n-local    37.90451    17.89938    23.66292    11.91693     9.33590     8.79951
  augment   207.20667   207.20667   207.20667     0.00000    -0.00000    -0.00000
  Kinetic   593.43873   579.64397   578.02685     7.17034     5.91976     1.73262
  Fock        0.00000     0.00000     0.00000     0.00000     0.00000     0.00000
  -------------------------------------------------------------------------------------
  Total      -4.00152    -4.00152    -4.00152     0.00000    -0.00000     0.00000
  in kB    -104.56975  -104.56975  -104.56975     0.00000    -0.00000     0.00000
  external pressure =     -104.57 kB  Pullay stress =        0.00 kB


 VOLUME and BASIS-vectors are now :
 -----------------------------------------------------------------------------
  energy-cutoff  :      300.00
  volume of cell :       61.31
      direct lattice vectors                 reciprocal lattice vectors
     3.943150362  0.000000000  0.000000000     0.253604329 -0.000000000  0.000000000
     0.000000000  3.943150362  0.000000000     0.000000000  0.253604329  0.000000000
     0.000000000  0.000000000  3.943150362    -0.000000000 -0.000000000  0.253604329

  length of vectors
     3.943150362  3.943150362  3.943150362     0.253604329  0.253604329  0.253604329


 FORCES acting on ions
    electron-ion (+dipol)            ewald-force                    non-local-force                 convergence-correction
 -----------------------------------------------------------------------------------------------
   -.179E-13 -.189E-13 -.284E-13   -.174E-13 0.279E-14 -.223E-15   -.348E-23 -.165E-23 -.165E-23   0.190E-13 0.772E-14 -.120E-13
   -.183E-13 0.169E-12 0.164E-12   -.175E-13 -.465E-14 0.363E-14   0.720E-24 0.331E-23 0.331E-23   0.155E-13 -.478E-15 0.415E-14
   0.173E-12 -.190E-13 -.148E-12   0.157E-13 0.616E-14 0.367E-14   -.122E-23 0.000E+00 -.207E-23   -.161E-13 0.880E-14 0.593E-14
   0.173E-12 0.169E-12 0.249E-12   0.155E-13 -.129E-14 -.812E-14   0.628E-23 0.496E-23 -.414E-23   -.560E-14 0.118E-14 -.163E-13
 -----------------------------------------------------------------------------------------------
   0.310E-12 0.300E-12 0.236E-12   -.367E-14 0.301E-14 -.104E-14   0.231E-23 0.662E-23 -.455E-23   0.129E-13 0.172E-13 -.183E-13
 
 
 POSITION                                       TOTAL-FORCE (eV/Angst)
 -----------------------------------------------------------------------------------
      0.00000      0.00000      0.00000         0.000000      0.000000     -0.000000
      0.00000      1.97158      1.97158         0.000000     -0.000000      0.000000
      1.97158      0.00000      1.97158        -0.000000      0.000000      0.000000
      1.97158      1.97158      0.00000        -0.000000      0.000000     -0.000000
 -----------------------------------------------------------------------------------
    total drift:                                0.000000      0.000000      0.000000


--------------------------------------------------------------------------------------------------------



  FREE ENERGIE OF THE ION-ELECTRON SYSTEM (eV)
  ---------------------------------------------------
  free  energy   TOTEN  =       -30.01557893 eV

  energy  without entropy=      -29.83124219  energy(sigma->0) =      -29.92341056
 


--------------------------------------------------------------------------------------------------------


    POTLOK:  cpu time    0.0142: real time    0.0142


--------------------------------------------------------------------------------------------------------


     LOOP+:  cpu time    1.6871: real time    1.6863
    4ORBIT:  cpu time    0.0000: real time    0.0000

 total amount of memory used by VASP MPI-rank0    36003. kBytes
=======================================================================

   base      :      30000. kBytes
   nonl-proj :        469. kBytes
   fftplans  :       1676. kBytes
   grid      :       2560. kBytes
   one-center:         62. kBytes
   wavefun   :       1236. kBytes
 
  
  
 General timing and accounting informations for this job:
 ========================================================
  
                  Total CPU time used (sec):        2.016
                            User time (sec):        1.986
                          System time (sec):        0.030
                         Elapsed time (sec):        2.356
  
                   Maximum memory used (kb):       50392.
                   Average memory used (kb):           0.
  
                          Minor page faults:        13823
                          Major page faults:            0
                 Voluntary context switches:          618
